title                   = NVT equilibration 
define                  = -DPOSRES  ; position restrain the protein 
; Run parameters
integrator              = md        ; leap-frog integrator
nsteps                  = 50000     ; 1 * 50000 = 50 ps
dt                      = 0.001     ; 1 fs
; Output control
nstxout                 = 500       ; save coordinates every 1.0 ps
nstvout                 = 500       ; save velocities every 1.0 ps
nstenergy               = 500       ; save energies every 1.0 ps
nstlog                  = 500       ; update log file every 1.0 ps
; Bond parameters
continuation            = no        ; first dynamics run
constraint_algorithm    = SHAKE     ; holonomic constraints 
constraints             = h-bonds   ; bonds involving H are constrained
; Nonbonded settings 
cutoff-scheme           = Verlet    ; Buffered neighbor searching
ns_type                 = grid      ; search neighboring grid cells
nstlist                 = 10        ; 20 fs, largely irrelevant with Verlet
rcoulomb                = 0.8       ; short-range electrostatic cutoff (in nm)
rvdw                    = 0.8       ; short-range van der Waals cutoff (in nm)
DispCorr                = EnerPres  ; account for cut-off vdW scheme
; Electrostatics
coulombtype             = PME       ; Particle Mesh Ewald for long-range electrostatics
pme_order               = 4         ; cubic interpolation
fourierspacing          = 0.16      ; grid spacing for FFT
; Temperature coupling is on
tcoupl                  = Nose-Hoover             ; thermostat
tc-grps                 = Protein Non-Protein       ; two coupling groups - more accurate
tau_t                   = 0.2     0.2           ; time constant, in ps
ref_t                   = 300     300           ; reference temperature, one for each group, in K
; Pressure coupling is off
pcoupl                  = no        ; no pressure coupling in NVT
; Periodic boundary conditions
pbc                     = xyz       ; 3-D PBC
; Velocity generation
gen_vel                 = yes       ; assign velocities from Maxwell distribution
gen_temp                = 300       ; temperature for Maxwell distribution
gen_seed                = -1        ; generate a random seed
